 DBCSR| CPU Multiplication driver                                           XSMM
 DBCSR| Multrec recursion limit                                              512
 DBCSR| Multiplication stack size                                           1000
 DBCSR| Maximum elements for images                                    UNLIMITED
 DBCSR| Multiplicative factor virtual images                                   1
 DBCSR| Use multiplication densification                                       T
 DBCSR| Multiplication size stacks                                             3


  **** **** ******  **  PROGRAM STARTED AT               2020-06-14 16:22:03.691
 ***** ** ***  *** **   PROGRAM STARTED ON           nano03.int-nano.int.kit.edu
 **    ****   ******    PROGRAM STARTED BY                                xs9924
 ***** **    ** ** **   PROGRAM PROCESS ID                                 17157
  **** **  *******  **  PROGRAM STARTED IN /home/ws/xs9924/The_ABC_of_DFT/Exerci
                                           se_4

 CP2K| version string:                                          CP2K version 7.1
 CP2K| source code revision number:                                  git:e635599
 CP2K| cp2kflags: libint fftw3 libxc xsmm spglib                                
 CP2K| is freely available from                            https://www.cp2k.org/
 CP2K| Program compiled at                          Mon Dec 23 19:14:30 CET 2019
 CP2K| Program compiled on                                                pc9404
 CP2K| Program compiled for                                Linux-x86-64-gfortran
 CP2K| Data directory path          //home/ws/xs9924/../../share/data/CP2K/data/
 CP2K| Input file name                                                 input.inp

 GLOBAL| Force Environment number                                              1
 GLOBAL| Basis set file name                                        BASIS_MOLOPT
 GLOBAL| Potential file name                                      GTH_POTENTIALS
 GLOBAL| MM Potential file name                                     MM_POTENTIAL
 GLOBAL| Coordinate file name                               6_0_CNT-3periods.xyz
 GLOBAL| Method name                                                        CP2K
 GLOBAL| Project name                                           6_0_CNT-3periods
 GLOBAL| Preferred FFT library                                             FFTW3
 GLOBAL| Preferred diagonalization lib.                                       SL
 GLOBAL| Run type                                                         ENERGY
 GLOBAL| All-to-all communication in single precision                          F
 GLOBAL| FFTs using library dependent lengths                                  F
 GLOBAL| Global print level                                               MEDIUM
 GLOBAL| MPI I/O enabled                                                       T
 GLOBAL| Total number of message passing processes                             1
 GLOBAL| Number of threads for this process                                    1
 GLOBAL| This output is from process                                           0
 GLOBAL| CPU model name                          AMD EPYC 7702 64-Core Processor
 GLOBAL| CPUID                                                              1002
 GLOBAL| Compiled for CPUID                                                    0

 MEMORY| system memory details [Kb]
 MEMORY|                        rank 0           min           max       average
 MEMORY| MemTotal            264034192     264034192     264034192     264034192
 MEMORY| MemFree             219245636     219245636     219245636     219245636
 MEMORY| Buffers                436604        436604        436604        436604
 MEMORY| Cached               16844068      16844068      16844068      16844068
 MEMORY| Slab                  2978672       2978672       2978672       2978672
 MEMORY| SReclaimable           995148        995148        995148        995148
 MEMORY| MemLikelyFree       237521456     237521456     237521456     237521456


 *** Fundamental physical constants (SI units) ***

 *** Literature: B. J. Mohr and B. N. Taylor,
 ***             CODATA recommended values of the fundamental physical
 ***             constants: 2006, Web Version 5.1
 ***             http://physics.nist.gov/constants

 Speed of light in vacuum [m/s]                             2.99792458000000E+08
 Magnetic constant or permeability of vacuum [N/A**2]       1.25663706143592E-06
 Electric constant or permittivity of vacuum [F/m]          8.85418781762039E-12
 Planck constant (h) [J*s]                                  6.62606896000000E-34
 Planck constant (h-bar) [J*s]                              1.05457162825177E-34
 Elementary charge [C]                                      1.60217648700000E-19
 Electron mass [kg]                                         9.10938215000000E-31
 Electron g factor [ ]                                     -2.00231930436220E+00
 Proton mass [kg]                                           1.67262163700000E-27
 Fine-structure constant                                    7.29735253760000E-03
 Rydberg constant [1/m]                                     1.09737315685270E+07
 Avogadro constant [1/mol]                                  6.02214179000000E+23
 Boltzmann constant [J/K]                                   1.38065040000000E-23
 Atomic mass unit [kg]                                      1.66053878200000E-27
 Bohr radius [m]                                            5.29177208590000E-11

 *** Conversion factors ***

 [u] -> [a.u.]                                              1.82288848426455E+03
 [Angstrom] -> [Bohr] = [a.u.]                              1.88972613288564E+00
 [a.u.] = [Bohr] -> [Angstrom]                              5.29177208590000E-01
 [a.u.] -> [s]                                              2.41888432650478E-17
 [a.u.] -> [fs]                                             2.41888432650478E-02
 [a.u.] -> [J]                                              4.35974393937059E-18
 [a.u.] -> [N]                                              8.23872205491840E-08
 [a.u.] -> [K]                                              3.15774647902944E+05
 [a.u.] -> [kJ/mol]                                         2.62549961709828E+03
 [a.u.] -> [kcal/mol]                                       6.27509468713739E+02
 [a.u.] -> [Pa]                                             2.94210107994716E+13
 [a.u.] -> [bar]                                            2.94210107994716E+08
 [a.u.] -> [atm]                                            2.90362800883016E+08
 [a.u.] -> [eV]                                             2.72113838565563E+01
 [a.u.] -> [Hz]                                             6.57968392072181E+15
 [a.u.] -> [1/cm] (wave numbers)                            2.19474631370540E+05
 [a.u./Bohr**2] -> [1/cm]                                   5.14048714338585E+03
 

 CELL_TOP| Volume [angstrom^3]:                                         7987.500
 CELL_TOP| Vector a [angstrom    25.000     0.000     0.000    |a| =      25.000
 CELL_TOP| Vector b [angstrom     0.000    12.780     0.000    |b| =      12.780
 CELL_TOP| Vector c [angstrom     0.000     0.000    25.000    |c| =      25.000
 CELL_TOP| Angle (b,c), alpha [degree]:                                   90.000
 CELL_TOP| Angle (a,c), beta  [degree]:                                   90.000
 CELL_TOP| Angle (a,b), gamma [degree]:                                   90.000
 CELL_TOP| Numerically orthorhombic:                                         YES

 GENERATE|  Preliminary Number of Bonds generated:                             0
 GENERATE|  Achieved consistency in connectivity generation.

 CELL| Volume [angstrom^3]:                                             7987.500
 CELL| Vector a [angstrom]:      25.000     0.000     0.000    |a| =      25.000
 CELL| Vector b [angstrom]:       0.000    12.780     0.000    |b| =      12.780
 CELL| Vector c [angstrom]:       0.000     0.000    25.000    |c| =      25.000
 CELL| Angle (b,c), alpha [degree]:                                       90.000
 CELL| Angle (a,c), beta  [degree]:                                       90.000
 CELL| Angle (a,b), gamma [degree]:                                       90.000
 CELL| Numerically orthorhombic:                                             YES

 CELL_REF| Volume [angstrom^3]:                                         7987.500
 CELL_REF| Vector a [angstrom    25.000     0.000     0.000    |a| =      25.000
 CELL_REF| Vector b [angstrom     0.000    12.780     0.000    |b| =      12.780
 CELL_REF| Vector c [angstrom     0.000     0.000    25.000    |c| =      25.000
 CELL_REF| Angle (b,c), alpha [degree]:                                   90.000
 CELL_REF| Angle (a,c), beta  [degree]:                                   90.000
 CELL_REF| Angle (a,b), gamma [degree]:                                   90.000
 CELL_REF| Numerically orthorhombic:                                         YES

 *******************************************************************************
 *******************************************************************************
 **                                                                           **
 **     #####                         ##              ##                      **
 **    ##   ##            ##          ##              ##                      **
 **   ##     ##                       ##            ######                    **
 **   ##     ##  ##   ##  ##   #####  ##  ##   ####   ##    #####    #####    **
 **   ##     ##  ##   ##  ##  ##      ## ##   ##      ##   ##   ##  ##   ##   **
 **   ##  ## ##  ##   ##  ##  ##      ####     ###    ##   ######   ######    **
 **    ##  ###   ##   ##  ##  ##      ## ##      ##   ##   ##       ##        **
 **     #######   #####   ##   #####  ##  ##  ####    ##    #####   ##        **
 **           ##                                                    ##        **
 **                                                                           **
 **                                                ... make the atoms dance   **
 **                                                                           **
 **            Copyright (C) by CP2K developers group (2000 - 2019)           **
 **                                                                           **
 *******************************************************************************

 *** WARNING in qs_environment.F:1310 :: More added MOs requested than ***
 *** available. The full set of unoccupied MOs will be used.           ***


 DFT| Spin restricted Kohn-Sham (RKS) calculation                            RKS
 DFT| Multiplicity                                                             1
 DFT| Number of spin states                                                    1
 DFT| Charge                                                                   0
 DFT| Self-interaction correction (SIC)                                       NO
 DFT| Cutoffs: density                                              1.000000E-10
 DFT|          gradient                                             1.000000E-10
 DFT|          tau                                                  1.000000E-10
 DFT|          cutoff_smoothing_range                               0.000000E+00
 DFT| XC density smoothing                                                  NONE
 DFT| XC derivatives                                                          PW
 FUNCTIONAL| ROUTINE=NEW
 FUNCTIONAL| PADE:
 FUNCTIONAL| S. Goedecker, M. Teter and J. Hutter, Phys. Rev. B 54, 1703 (1996) 

 QS| Method:                                                                 GPW
 QS| Density plane wave grid type                        NON-SPHERICAL FULLSPACE
 QS| Number of grid levels:                                                    4
 QS| Density cutoff [a.u.]:                                                150.0
 QS| Multi grid cutoff [a.u.]: 1) grid level                               150.0
 QS|                           2) grid level                                50.0
 QS|                           3) grid level                                16.7
 QS|                           4) grid level                                 5.6
 QS| Grid level progression factor:                                          3.0
 QS| Relative density cutoff [a.u.]:                                        15.0
 QS| Consistent realspace mapping and integration 
 QS| Interaction thresholds: eps_pgf_orb:                                1.0E-05
 QS|                         eps_filter_matrix:                          0.0E+00
 QS|                         eps_core_charge:                            1.0E-12
 QS|                         eps_rho_gspace:                             1.0E-10
 QS|                         eps_rho_rspace:                             1.0E-10
 QS|                         eps_gvg_rspace:                             1.0E-05
 QS|                         eps_ppl:                                    1.0E-02
 QS|                         eps_ppnl:                                   1.0E-07


 ATOMIC KIND INFORMATION

  1. Atomic kind: C                                     Number of atoms:      72

     Orbital Basis Set                                            SZV-MOLOPT-GTH

       Number of orbital shell sets:                                           1
       Number of orbital shells:                                               2
       Number of primitive Cartesian functions:                                7
       Number of Cartesian basis functions:                                    4
       Number of spherical basis functions:                                    4
       Norm type:                                                              2

       Normalised Cartesian orbitals:

                        Set   Shell   Orbital            Exponent    Coefficient

                          1       1    2s                6.132625      -0.263661
                                                         2.625196      -0.231112
                                                         1.045457       0.042712
                                                         0.478316       0.306085
                                                         0.178617       0.065483
                                                         0.075145       0.000568
                                                         0.030287       0.000417

                          1       2    3px               6.132625       0.562677
                                                         2.625196       0.633910
                                                         1.045457       0.379157
                                                         0.478316       0.235193
                                                         0.178617       0.052379
                                                         0.075145       0.003677
                                                         0.030287       0.000105
                          1       2    3py               6.132625       0.562677
                                                         2.625196       0.633910
                                                         1.045457       0.379157
                                                         0.478316       0.235193
                                                         0.178617       0.052379
                                                         0.075145       0.003677
                                                         0.030287       0.000105
                          1       2    3pz               6.132625       0.562677
                                                         2.625196       0.633910
                                                         1.045457       0.379157
                                                         0.478316       0.235193
                                                         0.178617       0.052379
                                                         0.075145       0.003677
                                                         0.030287       0.000105

     GTH Potential information for                                   GTH-PADE-q4

       Description:                       Goedecker-Teter-Hutter pseudopotential
                                           Goedecker et al., PRB 54, 1703 (1996)
                                          Hartwigsen et al., PRB 58, 3641 (1998)
                                                      Krack, TCA 114, 145 (2005)

       Gaussian exponent of the core charge distribution:               4.109048
       Electronic configuration (s p d ...):                               2   2

       Parameters of the local part of the GTH pseudopotential:

                          rloc        C1          C2          C3          C4
                        0.348830   -8.513771    1.228432

       Parameters of the non-local part of the GTH pseudopotential:

                   l      r(l)      h(i,j,l)

                   0    0.304553    9.522842
                   1    0.232677


 MOLECULE KIND INFORMATION


 All atoms are their own molecule, skipping detailed information


 TOTAL NUMBERS AND MAXIMUM NUMBERS

  Total number of            - Atomic kinds:                                   1
                             - Atoms:                                         72
                             - Shell sets:                                    72
                             - Shells:                                       144
                             - Primitive Cartesian functions:                504
                             - Cartesian basis functions:                    288
                             - Spherical basis functions:                    288

  Maximum angular momentum of- Orbital basis functions:                        1
                             - Local part of the GTH pseudopotential:          2
                             - Non-local part of the GTH pseudopotential:      0


 MODULE QUICKSTEP:  ATOMIC COORDINATES IN angstrom

  Atom  Kind  Element       X           Y           Z          Z(eff)       Mass

       1     1 C    6    2.348700    0.000000    0.000000      4.00      12.0107
       2     1 C    6    2.034000    0.710000   -1.174300      4.00      12.0107
       3     1 C    6    1.174300    0.000000   -2.034000      4.00      12.0107
       4     1 C    6    0.000000    0.710000   -2.348700      4.00      12.0107
       5     1 C    6   -1.174300    0.000000   -2.034000      4.00      12.0107
       6     1 C    6   -2.034000    0.710000   -1.174300      4.00      12.0107
       7     1 C    6   -2.348700    0.000000    0.000000      4.00      12.0107
       8     1 C    6   -2.034000    0.710000    1.174300      4.00      12.0107
       9     1 C    6   -1.174300   -0.000000    2.034000      4.00      12.0107
      10     1 C    6    0.000000    0.710000    2.348700      4.00      12.0107
      11     1 C    6    1.174300   -0.000000    2.034000      4.00      12.0107
      12     1 C    6    2.034000    0.710000    1.174300      4.00      12.0107
      13     1 C    6    2.034000    2.130000   -1.174300      4.00      12.0107
      14     1 C    6    1.174300    2.840000   -2.034000      4.00      12.0107
      15     1 C    6    0.000000    2.130000   -2.348700      4.00      12.0107
      16     1 C    6   -1.174300    2.840000   -2.034000      4.00      12.0107
      17     1 C    6   -2.034000    2.130000   -1.174300      4.00      12.0107
      18     1 C    6   -2.348700    2.840000    0.000000      4.00      12.0107
      19     1 C    6   -2.034000    2.130000    1.174300      4.00      12.0107
      20     1 C    6   -1.174300    2.840000    2.034000      4.00      12.0107
      21     1 C    6    0.000000    2.130000    2.348700      4.00      12.0107
      22     1 C    6    1.174300    2.840000    2.034000      4.00      12.0107
      23     1 C    6    2.034000    2.130000    1.174300      4.00      12.0107
      24     1 C    6    2.348700    2.840000    0.000000      4.00      12.0107
      25     1 C    6    2.348700    4.260000    0.000000      4.00      12.0107
      26     1 C    6    2.034000    4.970000   -1.174300      4.00      12.0107
      27     1 C    6    1.174300    4.260000   -2.034000      4.00      12.0107
      28     1 C    6    0.000000    4.970000   -2.348700      4.00      12.0107
      29     1 C    6   -1.174300    4.260000   -2.034000      4.00      12.0107
      30     1 C    6   -2.034000    4.970000   -1.174300      4.00      12.0107
      31     1 C    6   -2.348700    4.260000    0.000000      4.00      12.0107
      32     1 C    6   -2.034000    4.970000    1.174300      4.00      12.0107
      33     1 C    6   -1.174300    4.260000    2.034000      4.00      12.0107
      34     1 C    6    0.000000    4.970000    2.348700      4.00      12.0107
      35     1 C    6    1.174300    4.260000    2.034000      4.00      12.0107
      36     1 C    6    2.034000    4.970000    1.174300      4.00      12.0107
      37     1 C    6    2.034000    6.390000   -1.174300      4.00      12.0107
      38     1 C    6    1.174300    7.100000   -2.034000      4.00      12.0107
      39     1 C    6    0.000000    6.390000   -2.348700      4.00      12.0107
      40     1 C    6   -1.174300    7.100000   -2.034000      4.00      12.0107
      41     1 C    6   -2.034000    6.390000   -1.174300      4.00      12.0107
      42     1 C    6   -2.348700    7.100000    0.000000      4.00      12.0107
      43     1 C    6   -2.034000    6.390000    1.174300      4.00      12.0107
      44     1 C    6   -1.174300    7.100000    2.034000      4.00      12.0107
      45     1 C    6    0.000000    6.390000    2.348700      4.00      12.0107
      46     1 C    6    1.174300    7.100000    2.034000      4.00      12.0107
      47     1 C    6    2.034000    6.390000    1.174300      4.00      12.0107
      48     1 C    6    2.348700    7.100000    0.000000      4.00      12.0107
      49     1 C    6    2.348700    8.520000    0.000000      4.00      12.0107
      50     1 C    6    2.034000    9.230000   -1.174300      4.00      12.0107
      51     1 C    6    1.174300    8.520000   -2.034000      4.00      12.0107
      52     1 C    6    0.000000    9.230000   -2.348700      4.00      12.0107
      53     1 C    6   -1.174300    8.520000   -2.034000      4.00      12.0107
      54     1 C    6   -2.034000    9.230000   -1.174300      4.00      12.0107
      55     1 C    6   -2.348700    8.520000    0.000000      4.00      12.0107
      56     1 C    6   -2.034000    9.230000    1.174300      4.00      12.0107
      57     1 C    6   -1.174300    8.520000    2.034000      4.00      12.0107
      58     1 C    6    0.000000    9.230000    2.348700      4.00      12.0107
      59     1 C    6    1.174300    8.520000    2.034000      4.00      12.0107
      60     1 C    6    2.034000    9.230000    1.174300      4.00      12.0107
      61     1 C    6    2.034000   10.650000   -1.174300      4.00      12.0107
      62     1 C    6    1.174300   11.360000   -2.034000      4.00      12.0107
      63     1 C    6    0.000000   10.650000   -2.348700      4.00      12.0107
      64     1 C    6   -1.174300   11.360000   -2.034000      4.00      12.0107
      65     1 C    6   -2.034000   10.650000   -1.174300      4.00      12.0107
      66     1 C    6   -2.348700   11.360000    0.000000      4.00      12.0107
      67     1 C    6   -2.034000   10.650000    1.174300      4.00      12.0107
      68     1 C    6   -1.174300   11.360000    2.034000      4.00      12.0107
      69     1 C    6    0.000000   10.650000    2.348700      4.00      12.0107
      70     1 C    6    1.174300   11.360000    2.034000      4.00      12.0107
      71     1 C    6    2.034000   10.650000    1.174300      4.00      12.0107
      72     1 C    6    2.348700   11.360000    0.000000      4.00      12.0107




 SCF PARAMETERS         Density guess:                                    ATOMIC
                        --------------------------------------------------------
                        max_scf:                                             300
                        max_scf_history:                                       0
                        max_diis:                                              4
                        --------------------------------------------------------
                        eps_scf:                                        1.00E-05
                        eps_scf_history:                                0.00E+00
                        eps_diis:                                       1.00E-01
                        eps_eigval:                                     1.00E-05
                        --------------------------------------------------------
                        level_shift [a.u.]:                                 0.00
                        added MOs                                       144    0
                        --------------------------------------------------------
                        Mixing method:                            BROYDEN_MIXING
                                                charge density mixing in g-space
                        --------------------------------------------------------
                        Smear method:                                FERMI_DIRAC
                        Electronic temperature [K]:                        300.0
                        Electronic temperature [a.u.]:                  9.50E-04
                        Accuracy threshold:                             1.00E-10
                        --------------------------------------------------------
                        No outer SCF

 PW_GRID| Information for grid number                                          1
 PW_GRID| Cutoff [a.u.]                                                    150.0
 PW_GRID| spherical cutoff:                                                   NO
 PW_GRID|   Bounds   1           -135     134                Points:         270
 PW_GRID|   Bounds   2            -67      67                Points:         135
 PW_GRID|   Bounds   3           -135     134                Points:         270
 PW_GRID| Volume element (a.u.^3)  0.5477E-02     Volume (a.u.^3)     53902.3225
 PW_GRID| Grid span                                                    FULLSPACE

 PW_GRID| Information for grid number                                          2
 PW_GRID| Number of the reference grid                                         1
 PW_GRID| Cutoff [a.u.]                                                     50.0
 PW_GRID| spherical cutoff:                                                   NO
 PW_GRID|   Bounds   1            -80      79                Points:         160
 PW_GRID|   Bounds   2            -40      39                Points:          80
 PW_GRID|   Bounds   3            -80      79                Points:         160
 PW_GRID| Volume element (a.u.^3)  0.2632E-01     Volume (a.u.^3)     53902.3225
 PW_GRID| Grid span                                                    FULLSPACE

 PW_GRID| Information for grid number                                          3
 PW_GRID| Number of the reference grid                                         1
 PW_GRID| Cutoff [a.u.]                                                     16.7
 PW_GRID| spherical cutoff:                                                   NO
 PW_GRID|   Bounds   1            -45      44                Points:          90
 PW_GRID|   Bounds   2            -22      22                Points:          45
 PW_GRID|   Bounds   3            -45      44                Points:          90
 PW_GRID| Volume element (a.u.^3)  0.1479         Volume (a.u.^3)     53902.3225
 PW_GRID| Grid span                                                    FULLSPACE

 PW_GRID| Information for grid number                                          4
 PW_GRID| Number of the reference grid                                         1
 PW_GRID| Cutoff [a.u.]                                                      5.6
 PW_GRID| spherical cutoff:                                                   NO
 PW_GRID|   Bounds   1            -27      26                Points:          54
 PW_GRID|   Bounds   2            -12      12                Points:          25
 PW_GRID|   Bounds   3            -27      26                Points:          54
 PW_GRID| Volume element (a.u.^3)  0.7394         Volume (a.u.^3)     53902.3225
 PW_GRID| Grid span                                                    FULLSPACE

 POISSON| Solver                                                        PERIODIC
 POISSON| Periodicity                                                        XYZ

 RS_GRID| Information for grid number                                          1
 RS_GRID|   Bounds   1           -135     134                Points:         270
 RS_GRID|   Bounds   2            -67      67                Points:         135
 RS_GRID|   Bounds   3           -135     134                Points:         270

 RS_GRID| Information for grid number                                          2
 RS_GRID|   Bounds   1            -80      79                Points:         160
 RS_GRID|   Bounds   2            -40      39                Points:          80
 RS_GRID|   Bounds   3            -80      79                Points:         160

 RS_GRID| Information for grid number                                          3
 RS_GRID|   Bounds   1            -45      44                Points:          90
 RS_GRID|   Bounds   2            -22      22                Points:          45
 RS_GRID|   Bounds   3            -45      44                Points:          90

 RS_GRID| Information for grid number                                          4
 RS_GRID|   Bounds   1            -27      26                Points:          54
 RS_GRID|   Bounds   2            -12      12                Points:          25
 RS_GRID|   Bounds   3            -27      26                Points:          54

 Number of electrons:                                                        288
 Number of occupied orbitals:                                                144
 Number of molecular orbitals:                                               288

 Number of orbital functions:                                                288
 Number of independent orbital functions:                                    288

 Extrapolation method: initial_guess

 Atomic guess: The first density matrix is obtained in terms of atomic orbitals
               and electronic configurations assigned to each atomic kind

 Guess for atomic kind: C

 Electronic structure
    Total number of core electrons                                          2.00
    Total number of valence electrons                                       4.00
    Total number of electrons                                               6.00
    Multiplicity                                                   not specified
    S   [  2.00] 2.00
    P      2.00


 *******************************************************************************
                  Iteration          Convergence                     Energy [au]
 *******************************************************************************
                          1         0.00000                      -5.221360324012

 Energy components [Hartree]           Total Energy ::           -5.221360324012
                                        Band Energy ::           -1.117607121015
                                     Kinetic Energy ::            4.338444617531
                                   Potential Energy ::           -9.559804941543
                                      Virial (-V/T) ::            2.203509733169
                                        Core Energy ::           -8.602686822206
                                          XC Energy ::           -1.533265579935
                                     Coulomb Energy ::            4.914592078128
                       Total Pseudopotential Energy ::          -12.967394213486
                       Local Pseudopotential Energy ::          -13.533486231358
                    Nonlocal Pseudopotential Energy ::            0.566092017872
                                        Confinement ::            0.262627737492

 Orbital energies  State     L     Occupation   Energy[a.u.]          Energy[eV]

                       1     0          2.000      -0.421741          -11.476150

                       1     1          2.000      -0.137063           -3.729668


 Total Electron Density at R=0:                                         0.012643
 Re-scaling the density matrix to get the right number of electrons
                  # Electrons              Trace(P)               Scaling factor
                          288               288.000                        1.000


 SCF WAVEFUNCTION OPTIMIZATION

  Step     Update method      Time    Convergence         Total energy    Change
  ------------------------------------------------------------------------------
     1 NoMix/Diag. 0.50E+00    3.4     1.34223524      -401.1079233708 -4.01E+02
     2 Broy./Diag. 0.50E+00    6.7     0.00487281      -413.1579030913 -1.20E+01
     3 Broy./Diag. 0.50E+00    6.9     0.00403883      -409.0145835550  4.14E+00
     4 Broy./Diag. 0.50E+00    6.9     0.00170841      -408.7573601111  2.57E-01
     5 Broy./Diag. 0.50E+00    7.0     0.00440690      -408.6322138948  1.25E-01
     6 Broy./Diag. 0.50E+00    7.1     0.00425733      -408.5938688416  3.83E-02
     7 Broy./Diag. 0.50E+00    7.2     0.00112693      -408.5235686778  7.03E-02
     8 Broy./Diag. 0.50E+00    7.2     0.00025443      -408.5049155262  1.87E-02
     9 Broy./Diag. 0.50E+00    7.2     0.00040644      -408.5102282491 -5.31E-03
    10 Broy./Diag. 0.50E+00    7.3     0.00043571      -408.5154208751 -5.19E-03
    11 Broy./Diag. 0.50E+00    7.3     0.00067611      -408.5158678652 -4.47E-04
    12 Broy./Diag. 0.50E+00    7.3     0.00083330      -408.5169644950 -1.10E-03
    13 Broy./Diag. 0.50E+00    7.3     0.00035875      -408.5147672575  2.20E-03
    14 Broy./Diag. 0.50E+00    7.3     0.00034003      -408.5132946445  1.47E-03
    15 Broy./Diag. 0.50E+00    7.2     0.00029101      -408.5114861116  1.81E-03
    16 Broy./Diag. 0.50E+00    7.3     0.00008992      -408.5102298421  1.26E-03
    17 Broy./Diag. 0.50E+00    7.2     0.00008445      -408.5097455785  4.84E-04
    18 Broy./Diag. 0.50E+00    7.2     0.00013263      -408.5097210533  2.45E-05
    19 Broy./Diag. 0.50E+00    7.3     0.00012421      -408.5095195602  2.01E-04
    20 Broy./Diag. 0.50E+00    7.2     0.00007219      -408.5094524220  6.71E-05
    21 Broy./Diag. 0.50E+00    7.2     0.00006190      -408.5093887113  6.37E-05
    22 Broy./Diag. 0.50E+00    7.2     0.00001893      -408.5092967103  9.20E-05
    23 Broy./Diag. 0.50E+00    7.3     0.00001390      -408.5092077839  8.89E-05
    24 Broy./Diag. 0.50E+00    7.3     0.00002523      -408.5091210640  8.67E-05
    25 Broy./Diag. 0.50E+00    7.3     0.00002687      -408.5090886169  3.24E-05
    26 Broy./Diag. 0.50E+00    7.4     0.00001281      -408.5090460369  4.26E-05
    27 Broy./Diag. 0.50E+00    7.3     0.00001484      -408.5090270112  1.90E-05
    28 Broy./Diag. 0.50E+00    7.4     0.00000653      -408.5090059381  2.11E-05

  *** SCF run converged in    28 steps ***


  Electronic density on regular grids:       -287.9999999948        0.0000000052
  Core density on regular grids:              287.9999999744       -0.0000000256
  Total charge density on r-space grids:       -0.0000000204
  Total charge density g-space grids:          -0.0000000204

  Overlap energy of the core charge distribution:               0.00004145347494
  Self energy of the core charge distribution:               -931.60789180963889
  Core Hamiltonian energy:                                    300.92995196890018
  Hartree energy:                                             347.34720100471162
  Exchange-correlation energy:                               -125.17546546778685
  Electronic entropic energy:                                  -0.00284308718228
  Fermi energy:                                                -0.11781434837686

  Total energy:                                              -408.50900593813191

 !-----------------------------------------------------------------------------!
                           Hirshfeld Charges

  #Atom  Element  Kind  Ref Charge     Population                    Net charge
      1       C      1       4.000          3.999                         0.001
      2       C      1       4.000          3.999                         0.001
      3       C      1       4.000          3.999                         0.001
      4       C      1       4.000          3.999                         0.001
      5       C      1       4.000          3.999                         0.001
      6       C      1       4.000          3.999                         0.001
      7       C      1       4.000          3.999                         0.001
      8       C      1       4.000          3.999                         0.001
      9       C      1       4.000          3.999                         0.001
     10       C      1       4.000          3.999                         0.001
     11       C      1       4.000          3.999                         0.001
     12       C      1       4.000          3.999                         0.001
     13       C      1       4.000          3.999                         0.001
     14       C      1       4.000          3.999                         0.001
     15       C      1       4.000          3.999                         0.001
     16       C      1       4.000          3.999                         0.001
     17       C      1       4.000          3.999                         0.001
     18       C      1       4.000          3.999                         0.001
     19       C      1       4.000          3.999                         0.001
     20       C      1       4.000          3.999                         0.001
     21       C      1       4.000          3.999                         0.001
     22       C      1       4.000          3.999                         0.001
     23       C      1       4.000          3.999                         0.001
     24       C      1       4.000          3.999                         0.001
     25       C      1       4.000          3.999                         0.001
     26       C      1       4.000          3.999                         0.001
     27       C      1       4.000          3.999                         0.001
     28       C      1       4.000          3.999                         0.001
     29       C      1       4.000          3.999                         0.001
     30       C      1       4.000          3.999                         0.001
     31       C      1       4.000          3.999                         0.001
     32       C      1       4.000          3.999                         0.001
     33       C      1       4.000          3.999                         0.001
     34       C      1       4.000          3.999                         0.001
     35       C      1       4.000          3.999                         0.001
     36       C      1       4.000          3.999                         0.001
     37       C      1       4.000          3.999                         0.001
     38       C      1       4.000          3.999                         0.001
     39       C      1       4.000          3.999                         0.001
     40       C      1       4.000          3.999                         0.001
     41       C      1       4.000          3.999                         0.001
     42       C      1       4.000          3.999                         0.001
     43       C      1       4.000          3.999                         0.001
     44       C      1       4.000          3.999                         0.001
     45       C      1       4.000          3.999                         0.001
     46       C      1       4.000          3.999                         0.001
     47       C      1       4.000          3.999                         0.001
     48       C      1       4.000          3.999                         0.001
     49       C      1       4.000          3.999                         0.001
     50       C      1       4.000          3.999                         0.001
     51       C      1       4.000          3.999                         0.001
     52       C      1       4.000          3.999                         0.001
     53       C      1       4.000          3.999                         0.001
     54       C      1       4.000          3.999                         0.001
     55       C      1       4.000          3.999                         0.001
     56       C      1       4.000          3.999                         0.001
     57       C      1       4.000          3.999                         0.001
     58       C      1       4.000          3.999                         0.001
     59       C      1       4.000          3.999                         0.001
     60       C      1       4.000          3.999                         0.001
     61       C      1       4.000          3.999                         0.001
     62       C      1       4.000          3.999                         0.001
     63       C      1       4.000          3.999                         0.001
     64       C      1       4.000          3.999                         0.001
     65       C      1       4.000          3.999                         0.001
     66       C      1       4.000          3.999                         0.001
     67       C      1       4.000          3.999                         0.001
     68       C      1       4.000          3.999                         0.001
     69       C      1       4.000          3.999                         0.001
     70       C      1       4.000          3.999                         0.001
     71       C      1       4.000          3.999                         0.001
     72       C      1       4.000          3.999                         0.001

  Total Charge                                                            0.048
 !-----------------------------------------------------------------------------!

 ENERGY| Total FORCE_EVAL ( QS ) energy (a.u.):             -408.509029183187977


 -------------------------------------------------------------------------------
 -                                                                             -
 -                                DBCSR STATISTICS                             -
 -                                                                             -
 -------------------------------------------------------------------------------
 COUNTER                                    TOTAL       BLAS       SMM       ACC
 flops     4 x     4 x   288            678150144       0.0%    100.0%      0.0%
 flops inhomo. stacks                           0       0.0%      0.0%      0.0%
 flops total                       678.150144E+06       0.0%    100.0%      0.0%
 flops max/rank                    678.150144E+06       0.0%    100.0%      0.0%
 matmuls inhomo. stacks                         0       0.0%      0.0%      0.0%
 matmuls total                              73584       0.0%    100.0%      0.0%
 number of processed stacks                    84       0.0%    100.0%      0.0%
 average stack size                                     0.0     876.0       0.0
 marketing flops                   692.084736E+06
 -------------------------------------------------------------------------------
 # multiplications                             28
 max memory usage/rank               4.124185E+09
 # max total images/rank                        1
 # max 3D layers                                1
 # MPI messages exchanged                       0
 MPI messages size (bytes):
  total size                         0.000000E+00
  min size                           0.000000E+00
  max size                           0.000000E+00
  average size                       0.000000E+00
 MPI breakdown and total messages size (bytes):
             size <=      128                   0                        0
       128 < size <=     8192                   0                        0
      8192 < size <=    32768                   0                        0
     32768 < size <=   131072                   0                        0
    131072 < size <=  4194304                   0                        0
   4194304 < size <= 16777216                   0                        0
  16777216 < size                               0                        0
 -------------------------------------------------------------------------------

 MEMORY| Estimated peak process memory [MiB]                                3934

 -------------------------------------------------------------------------------
 ----                             MULTIGRID INFO                            ----
 -------------------------------------------------------------------------------
 count for grid        1:          15888          cutoff [a.u.]          150.00
 count for grid        2:          27248          cutoff [a.u.]           50.00
 count for grid        3:          25864          cutoff [a.u.]           16.67
 count for grid        4:          37716          cutoff [a.u.]            5.56
 total gridlevel count  :         106716

 -------------------------------------------------------------------------------
 -                                                                             -
 -                           R E F E R E N C E S                               -
 -                                                                             -
 -------------------------------------------------------------------------------
 
 CP2K version 7.1, the CP2K developers group (2019).
 CP2K is freely available from https://www.cp2k.org/ .

 Schuett, Ole; Messmer, Peter; Hutter, Juerg; VandeVondele, Joost. 
 Electronic Structure Calculations on Graphics Processing Units, John
 Wiley & Sons, Ltd, 173-190 (2016). 
 GPU-Accelerated Sparse Matrix-Matrix Multiplication for
 Linear Scaling Density Functional Theory.
 https://dx.doi.org/10.1002/9781118670712.ch8

 Borstnik, U; VandeVondele, J; Weber, V; Hutter, J. 
 PARALLEL COMPUTING, 40 (5-6), 47-58 (2014). 
 Sparse matrix multiplication: The distributed block-compressed sparse
 row library.
 https://dx.doi.org/10.1016/j.parco.2014.03.012

 Hutter, J; Iannuzzi, M; Schiffmann, F; VandeVondele, J. 
 WIREs Comput Mol Sci., 4 (1), 15-25 (2014). 
 CP2K: atomistic simulations of condensed matter systems.
 https://dx.doi.org/10.1002/wcms.1159

 VandeVondele, J; Hutter, J. 
 JOURNAL OF CHEMICAL PHYSICS, 127 (11), 114105 (2007). 
 Gaussian basis sets for accurate calculations on molecular systems in
 gas and condensed phases.
 https://dx.doi.org/10.1063/1.2770708

 Krack, M. 
 THEORETICAL CHEMISTRY ACCOUNTS, 114 (1-3), 145-152 (2005). 
 Pseudopotentials for H to Kr optimized for gradient-corrected
 exchange-correlation functionals.
 https://dx.doi.org/10.1007/s00214-005-0655-y

 VandeVondele, J; Krack, M; Mohamed, F; Parrinello, M; Chassaing, T;
 Hutter, J. COMPUTER PHYSICS COMMUNICATIONS, 167 (2), 103-128 (2005). 
 QUICKSTEP: Fast and accurate density functional calculations using a
 mixed Gaussian and plane waves approach.
 https://dx.doi.org/10.1016/j.cpc.2004.12.014

 Frigo, M; Johnson, SG. 
 PROCEEDINGS OF THE IEEE, 93 (2), 216-231 (2005). 
 The design and implementation of FFTW3.
 https://dx.doi.org/10.1109/JPROC.2004.840301

 Hartwigsen, C; Goedecker, S; Hutter, J. 
 PHYSICAL REVIEW B, 58 (7), 3641-3662 (1998). 
 Relativistic separable dual-space Gaussian pseudopotentials from H to Rn.
 https://dx.doi.org/10.1103/PhysRevB.58.3641

 Lippert, G; Hutter, J; Parrinello, M. 
 MOLECULAR PHYSICS, 92 (3), 477-487 (1997). 
 A hybrid Gaussian and plane wave density functional scheme.
 https://dx.doi.org/10.1080/002689797170220

 Goedecker, S; Teter, M; Hutter, J. 
 PHYSICAL REVIEW B, 54 (3), 1703-1710 (1996). 
 Separable dual-space Gaussian pseudopotentials.
 https://dx.doi.org/10.1103/PhysRevB.54.1703


 -------------------------------------------------------------------------------
 -                                                                             -
 -                                T I M I N G                                  -
 -                                                                             -
 -------------------------------------------------------------------------------
 SUBROUTINE                       CALLS  ASD         SELF TIME        TOTAL TIME
                                MAXIMUM       AVERAGE  MAXIMUM  AVERAGE  MAXIMUM
 CP2K                                 1  1.0    0.398    0.398  212.157  212.157
 qs_energies                          1  2.0    0.078    0.078  209.860  209.860
 scf_env_do_scf                       1  3.0    0.000    0.000  201.048  201.048
 scf_env_do_scf_inner_loop           28  4.0    0.003    0.003  201.048  201.048
 qs_ks_update_qs_env                 29  5.0    0.000    0.000   95.176   95.176
 rebuild_ks_matrix                   29  6.0    0.000    0.000   95.169   95.169
 qs_ks_build_kohn_sham_matrix        29  7.0    0.005    0.005   95.169   95.169
 qs_rho_update_rho                   29  5.0    0.000    0.000   83.778   83.778
 calculate_rho_elec                  29  6.0   52.143   52.143   83.778   83.778
 pw_transfer                        376  8.9    0.022    0.022   71.958   71.958
 fft_wrap_pw1pw2                    318  9.9    0.003    0.003   71.162   71.162
 sum_up_and_integrate                29  8.0    0.210    0.210   68.687   68.687
 integrate_v_rspace                  29  9.0   51.840   51.840   68.476   68.476
 fft_wrap_pw1pw2_150                144 10.2    2.040    2.040   65.205   65.205
 fft3d_s                            319 11.9   48.597   48.597   48.687   48.687
 density_rs2pw                       29  7.0    0.001    0.001   31.421   31.421
 gspace_mixing                       27  5.0    0.993    0.993   26.258   26.258
 potential_pw2rs                     29 10.0    0.040    0.040   16.631   16.631
 broyden_mixing                      27  6.0   13.466   13.466   13.466   13.466
 pw_scatter_s                       172 12.2   10.927   10.927   10.927   10.927
 pw_gather_s                        146 11.6    9.428    9.428    9.428    9.428
 qs_vxc_create                       29  8.0    0.001    0.001    9.083    9.083
 xc_vxc_pw_create                    29  9.0    1.068    1.068    9.082    9.082
 xc_rho_set_and_dset_create          29 10.0    0.001    0.001    8.013    8.013
 xc_functional_eval                  29 11.0    7.814    7.814    7.814    7.814
 fft_wrap_pw1pw2_50                  58 11.5    0.137    0.137    5.379    5.379
 -------------------------------------------------------------------------------

 The number of warnings for this run is : 1
 
 -------------------------------------------------------------------------------
  **** **** ******  **  PROGRAM ENDED AT                 2020-06-14 16:25:36.223
 ***** ** ***  *** **   PROGRAM RAN ON               nano03.int-nano.int.kit.edu
 **    ****   ******    PROGRAM RAN BY                                    xs9924
 ***** **    ** ** **   PROGRAM PROCESS ID                                 17157
  **** **  *******  **  PROGRAM STOPPED IN /home/ws/xs9924/The_ABC_of_DFT/Exerci
                                           se_4
